+ 0.5 0 2 cbr 500 ------- 0 0.0 3.0 0 0
- 0.5 0 2 cbr 500 ------- 0 0.0 3.0 0 0
+ 0.5 1 2 tcp 40 ------- 0 1.0 2.0 0 1
- 0.5 1 2 tcp 40 ------- 0 1.0 2.0 0 1
+ 0.505 0 2 cbr 500 ------- 0 0.0 3.0 1 2
- 0.505 0 2 cbr 500 ------- 0 0.0 3.0 1 2
+ 0.51 0 2 cbr 500 ------- 0 0.0 3.0 2 3
- 0.51 0 2 cbr 500 ------- 0 0.0 3.0 2 3
r 0.51032 1 2 tcp 40 ------- 0 1.0 2.0 0 1
+ 0.51032 2 1 ack 40 ------- 0 2.0 1.0 0 4
- 0.51032 2 1 ack 40 ------- 0 2.0 1.0 0 4
r 0.514 0 2 cbr 500 ------- 0 0.0 3.0 0 0
+ 0.514 2 3 cbr 500 ------- 0 0.0 3.0 0 0
- 0.514 2 3 cbr 500 ------- 0 0.0 3.0 0 0
+ 0.515 0 2 cbr 500 ------- 0 0.0 3.0 3 5
- 0.515 0 2 cbr 500 ------- 0 0.0 3.0 3 5
r 0.519 0 2 cbr 500 ------- 0 0.0 3.0 1 2
+ 0.519 2 3 cbr 500 ------- 0 0.0 3.0 1 2
- 0.519 2 3 cbr 500 ------- 0 0.0 3.0 1 2
+ 0.52 0 2 cbr 500 ------- 0 0.0 3.0 4 6
- 0.52 0 2 cbr 500 ------- 0 0.0 3.0 4 6
r 0.52064 2 1 ack 40 ------- 0 2.0 1.0 0 4
+ 0.52064 1 2 tcp 1040 ------- 0 1.0 2.0 1 7
- 0.52064 1 2 tcp 1040 ------- 0 1.0 2.0 1 7
+ 0.52064 1 2 tcp 1040 ------- 0 1.0 2.0 2 8
r 0.524 0 2 cbr 500 ------- 0 0.0 3.0 2 3
+ 0.524 2 3 cbr 500 ------- 0 0.0 3.0 2 3
- 0.524 2 3 cbr 500 ------- 0 0.0 3.0 2 3
+ 0.525 0 2 cbr 500 ------- 0 0.0 3.0 5 9
- 0.525 0 2 cbr 500 ------- 0 0.0 3.0 5 9
r 0.528 2 3 cbr 500 ------- 0 0.0 3.0 0 0
- 0.52896 1 2 tcp 1040 ------- 0 1.0 2.0 2 8
r 0.529 0 2 cbr 500 ------- 0 0.0 3.0 3 5
+ 0.529 2 3 cbr 500 ------- 0 0.0 3.0 3 5
- 0.529 2 3 cbr 500 ------- 0 0.0 3.0 3 5
+ 0.53 0 2 cbr 500 ------- 0 0.0 3.0 6 10
- 0.53 0 2 cbr 500 ------- 0 0.0 3.0 6 10
r 0.533 2 3 cbr 500 ------- 0 0.0 3.0 1 2
r 0.534 0 2 cbr 500 ------- 0 0.0 3.0 4 6
+ 0.534 2 3 cbr 500 ------- 0 0.0 3.0 4 6
- 0.534 2 3 cbr 500 ------- 0 0.0 3.0 4 6
+ 0.535 0 2 cbr 500 ------- 0 0.0 3.0 7 11
- 0.535 0 2 cbr 500 ------- 0 0.0 3.0 7 11
r 0.538 2 3 cbr 500 ------- 0 0.0 3.0 2 3
r 0.53896 1 2 tcp 1040 ------- 0 1.0 2.0 1 7
+ 0.53896 2 1 ack 40 ------- 0 2.0 1.0 1 12
- 0.53896 2 1 ack 40 ------- 0 2.0 1.0 1 12
r 0.539 0 2 cbr 500 ------- 0 0.0 3.0 5 9
+ 0.539 2 3 cbr 500 ------- 0 0.0 3.0 5 9
- 0.539 2 3 cbr 500 ------- 0 0.0 3.0 5 9
+ 0.54 0 2 cbr 500 ------- 0 0.0 3.0 8 13
- 0.54 0 2 cbr 500 ------- 0 0.0 3.0 8 13
r 0.543 2 3 cbr 500 ------- 0 0.0 3.0 3 5
r 0.544 0 2 cbr 500 ------- 0 0.0 3.0 6 10
+ 0.544 2 3 cbr 500 ------- 0 0.0 3.0 6 10
- 0.544 2 3 cbr 500 ------- 0 0.0 3.0 6 10
+ 0.545 0 2 cbr 500 ------- 0 0.0 3.0 9 14
- 0.545 0 2 cbr 500 ------- 0 0.0 3.0 9 14
r 0.54728 1 2 tcp 1040 ------- 0 1.0 2.0 2 8
+ 0.54728 2 1 ack 40 ------- 0 2.0 1.0 2 15
- 0.54728 2 1 ack 40 ------- 0 2.0 1.0 2 15
r 0.548 2 3 cbr 500 ------- 0 0.0 3.0 4 6
r 0.549 0 2 cbr 500 ------- 0 0.0 3.0 7 11
+ 0.549 2 3 cbr 500 ------- 0 0.0 3.0 7 11
- 0.549 2 3 cbr 500 ------- 0 0.0 3.0 7 11
r 0.54928 2 1 ack 40 ------- 0 2.0 1.0 1 12
+ 0.54928 1 2 tcp 1040 ------- 0 1.0 2.0 3 16
- 0.54928 1 2 tcp 1040 ------- 0 1.0 2.0 3 16
+ 0.54928 1 2 tcp 1040 ------- 0 1.0 2.0 4 17
+ 0.55 0 2 cbr 500 ------- 0 0.0 3.0 10 18
- 0.55 0 2 cbr 500 ------- 0 0.0 3.0 10 18
r 0.553 2 3 cbr 500 ------- 0 0.0 3.0 5 9
r 0.554 0 2 cbr 500 ------- 0 0.0 3.0 8 13
+ 0.554 2 3 cbr 500 ------- 0 0.0 3.0 8 13
- 0.554 2 3 cbr 500 ------- 0 0.0 3.0 8 13
+ 0.555 0 2 cbr 500 ------- 0 0.0 3.0 11 19
- 0.555 0 2 cbr 500 ------- 0 0.0 3.0 11 19
r 0.5576 2 1 ack 40 ------- 0 2.0 1.0 2 15
+ 0.5576 1 2 tcp 1040 ------- 0 1.0 2.0 5 20
+ 0.5576 1 2 tcp 1040 ------- 0 1.0 2.0 6 21
- 0.5576 1 2 tcp 1040 ------- 0 1.0 2.0 4 17
r 0.558 2 3 cbr 500 ------- 0 0.0 3.0 6 10
r 0.559 0 2 cbr 500 ------- 0 0.0 3.0 9 14
+ 0.559 2 3 cbr 500 ------- 0 0.0 3.0 9 14
- 0.559 2 3 cbr 500 ------- 0 0.0 3.0 9 14
+ 0.56 0 2 cbr 500 ------- 0 0.0 3.0 12 22
- 0.56 0 2 cbr 500 ------- 0 0.0 3.0 12 22
r 0.563 2 3 cbr 500 ------- 0 0.0 3.0 7 11
r 0.564 0 2 cbr 500 ------- 0 0.0 3.0 10 18
+ 0.564 2 3 cbr 500 ------- 0 0.0 3.0 10 18
- 0.564 2 3 cbr 500 ------- 0 0.0 3.0 10 18
+ 0.565 0 2 cbr 500 ------- 0 0.0 3.0 13 23
- 0.565 0 2 cbr 500 ------- 0 0.0 3.0 13 23
- 0.56592 1 2 tcp 1040 ------- 0 1.0 2.0 5 20
r 0.5676 1 2 tcp 1040 ------- 0 1.0 2.0 3 16
+ 0.5676 2 1 ack 40 ------- 0 2.0 1.0 3 24
- 0.5676 2 1 ack 40 ------- 0 2.0 1.0 3 24
r 0.568 2 3 cbr 500 ------- 0 0.0 3.0 8 13
r 0.569 0 2 cbr 500 ------- 0 0.0 3.0 11 19
+ 0.569 2 3 cbr 500 ------- 0 0.0 3.0 11 19
- 0.569 2 3 cbr 500 ------- 0 0.0 3.0 11 19
+ 0.57 0 2 cbr 500 ------- 0 0.0 3.0 14 25
- 0.57 0 2 cbr 500 ------- 0 0.0 3.0 14 25
r 0.573 2 3 cbr 500 ------- 0 0.0 3.0 9 14
r 0.574 0 2 cbr 500 ------- 0 0.0 3.0 12 22
+ 0.574 2 3 cbr 500 ------- 0 0.0 3.0 12 22
- 0.574 2 3 cbr 500 ------- 0 0.0 3.0 12 22
- 0.57424 1 2 tcp 1040 ------- 0 1.0 2.0 6 21
+ 0.575 0 2 cbr 500 ------- 0 0.0 3.0 15 26
- 0.575 0 2 cbr 500 ------- 0 0.0 3.0 15 26
r 0.57592 1 2 tcp 1040 ------- 0 1.0 2.0 4 17
+ 0.57592 2 1 ack 40 ------- 0 2.0 1.0 4 27
- 0.57592 2 1 ack 40 ------- 0 2.0 1.0 4 27
r 0.57792 2 1 ack 40 ------- 0 2.0 1.0 3 24
+ 0.57792 1 2 tcp 1040 ------- 0 1.0 2.0 7 28
+ 0.57792 1 2 tcp 1040 ------- 0 1.0 2.0 8 29
r 0.578 2 3 cbr 500 ------- 0 0.0 3.0 10 18
r 0.579 0 2 cbr 500 ------- 0 0.0 3.0 13 23
+ 0.579 2 3 cbr 500 ------- 0 0.0 3.0 13 23
- 0.579 2 3 cbr 500 ------- 0 0.0 3.0 13 23
+ 0.58 0 2 cbr 500 ------- 0 0.0 3.0 16 30
- 0.58 0 2 cbr 500 ------- 0 0.0 3.0 16 30
- 0.58256 1 2 tcp 1040 ------- 0 1.0 2.0 7 28
r 0.583 2 3 cbr 500 ------- 0 0.0 3.0 11 19
r 0.584 0 2 cbr 500 ------- 0 0.0 3.0 14 25
+ 0.584 2 3 cbr 500 ------- 0 0.0 3.0 14 25
- 0.584 2 3 cbr 500 ------- 0 0.0 3.0 14 25
r 0.58424 1 2 tcp 1040 ------- 0 1.0 2.0 5 20
+ 0.58424 2 1 ack 40 ------- 0 2.0 1.0 5 31
- 0.58424 2 1 ack 40 ------- 0 2.0 1.0 5 31
+ 0.585 0 2 cbr 500 ------- 0 0.0 3.0 17 32
- 0.585 0 2 cbr 500 ------- 0 0.0 3.0 17 32
r 0.58624 2 1 ack 40 ------- 0 2.0 1.0 4 27
+ 0.58624 1 2 tcp 1040 ------- 0 1.0 2.0 9 33
+ 0.58624 1 2 tcp 1040 ------- 0 1.0 2.0 10 34
r 0.588 2 3 cbr 500 ------- 0 0.0 3.0 12 22
r 0.589 0 2 cbr 500 ------- 0 0.0 3.0 15 26
+ 0.589 2 3 cbr 500 ------- 0 0.0 3.0 15 26
- 0.589 2 3 cbr 500 ------- 0 0.0 3.0 15 26
+ 0.59 0 2 cbr 500 ------- 0 0.0 3.0 18 35
- 0.59 0 2 cbr 500 ------- 0 0.0 3.0 18 35
- 0.59088 1 2 tcp 1040 ------- 0 1.0 2.0 8 29
r 0.59256 1 2 tcp 1040 ------- 0 1.0 2.0 6 21
+ 0.59256 2 1 ack 40 ------- 0 2.0 1.0 6 36
- 0.59256 2 1 ack 40 ------- 0 2.0 1.0 6 36
r 0.593 2 3 cbr 500 ------- 0 0.0 3.0 13 23
r 0.594 0 2 cbr 500 ------- 0 0.0 3.0 16 30
+ 0.594 2 3 cbr 500 ------- 0 0.0 3.0 16 30
- 0.594 2 3 cbr 500 ------- 0 0.0 3.0 16 30
r 0.59456 2 1 ack 40 ------- 0 2.0 1.0 5 31
+ 0.59456 1 2 tcp 1040 ------- 0 1.0 2.0 11 37
+ 0.59456 1 2 tcp 1040 ------- 0 1.0 2.0 12 38
+ 0.595 0 2 cbr 500 ------- 0 0.0 3.0 19 39
- 0.595 0 2 cbr 500 ------- 0 0.0 3.0 19 39
r 0.598 2 3 cbr 500 ------- 0 0.0 3.0 14 25
r 0.599 0 2 cbr 500 ------- 0 0.0 3.0 17 32
+ 0.599 2 3 cbr 500 ------- 0 0.0 3.0 17 32
- 0.599 2 3 cbr 500 ------- 0 0.0 3.0 17 32
- 0.5992 1 2 tcp 1040 ------- 0 1.0 2.0 9 33
+ 0.6 0 2 cbr 500 ------- 0 0.0 3.0 20 40
- 0.6 0 2 cbr 500 ------- 0 0.0 3.0 20 40
r 0.60088 1 2 tcp 1040 ------- 0 1.0 2.0 7 28
+ 0.60088 2 1 ack 40 ------- 0 2.0 1.0 7 41
- 0.60088 2 1 ack 40 ------- 0 2.0 1.0 7 41
r 0.60288 2 1 ack 40 ------- 0 2.0 1.0 6 36
+ 0.60288 1 2 tcp 1040 ------- 0 1.0 2.0 13 42
+ 0.60288 1 2 tcp 1040 ------- 0 1.0 2.0 14 43
r 0.603 2 3 cbr 500 ------- 0 0.0 3.0 15 26
r 0.604 0 2 cbr 500 ------- 0 0.0 3.0 18 35
+ 0.604 2 3 cbr 500 ------- 0 0.0 3.0 18 35
- 0.604 2 3 cbr 500 ------- 0 0.0 3.0 18 35
+ 0.605 0 2 cbr 500 ------- 0 0.0 3.0 21 44
- 0.605 0 2 cbr 500 ------- 0 0.0 3.0 21 44
- 0.60752 1 2 tcp 1040 ------- 0 1.0 2.0 10 34
r 0.608 2 3 cbr 500 ------- 0 0.0 3.0 16 30
r 0.609 0 2 cbr 500 ------- 0 0.0 3.0 19 39
+ 0.609 2 3 cbr 500 ------- 0 0.0 3.0 19 39
- 0.609 2 3 cbr 500 ------- 0 0.0 3.0 19 39
r 0.6092 1 2 tcp 1040 ------- 0 1.0 2.0 8 29
+ 0.6092 2 1 ack 40 ------- 0 2.0 1.0 8 45
- 0.6092 2 1 ack 40 ------- 0 2.0 1.0 8 45
+ 0.61 0 2 cbr 500 ------- 0 0.0 3.0 22 46
- 0.61 0 2 cbr 500 ------- 0 0.0 3.0 22 46
r 0.6112 2 1 ack 40 ------- 0 2.0 1.0 7 41
+ 0.6112 1 2 tcp 1040 ------- 0 1.0 2.0 15 47
+ 0.6112 1 2 tcp 1040 ------- 0 1.0 2.0 16 48
r 0.613 2 3 cbr 500 ------- 0 0.0 3.0 17 32
r 0.614 0 2 cbr 500 ------- 0 0.0 3.0 20 40
+ 0.614 2 3 cbr 500 ------- 0 0.0 3.0 20 40
- 0.614 2 3 cbr 500 ------- 0 0.0 3.0 20 40
+ 0.615 0 2 cbr 500 ------- 0 0.0 3.0 23 49
- 0.615 0 2 cbr 500 ------- 0 0.0 3.0 23 49
- 0.61584 1 2 tcp 1040 ------- 0 1.0 2.0 11 37
r 0.61752 1 2 tcp 1040 ------- 0 1.0 2.0 9 33
+ 0.61752 2 1 ack 40 ------- 0 2.0 1.0 9 50
- 0.61752 2 1 ack 40 ------- 0 2.0 1.0 9 50
r 0.618 2 3 cbr 500 ------- 0 0.0 3.0 18 35
r 0.619 0 2 cbr 500 ------- 0 0.0 3.0 21 44
+ 0.619 2 3 cbr 500 ------- 0 0.0 3.0 21 44
- 0.619 2 3 cbr 500 ------- 0 0.0 3.0 21 44
r 0.61952 2 1 ack 40 ------- 0 2.0 1.0 8 45
+ 0.61952 1 2 tcp 1040 ------- 0 1.0 2.0 17 51
+ 0.61952 1 2 tcp 1040 ------- 0 1.0 2.0 18 52
+ 0.62 0 2 cbr 500 ------- 0 0.0 3.0 24 53
- 0.62 0 2 cbr 500 ------- 0 0.0 3.0 24 53
r 0.623 2 3 cbr 500 ------- 0 0.0 3.0 19 39
r 0.624 0 2 cbr 500 ------- 0 0.0 3.0 22 46
+ 0.624 2 3 cbr 500 ------- 0 0.0 3.0 22 46
- 0.624 2 3 cbr 500 ------- 0 0.0 3.0 22 46
- 0.62416 1 2 tcp 1040 ------- 0 1.0 2.0 12 38
+ 0.625 0 2 cbr 500 ------- 0 0.0 3.0 25 54
- 0.625 0 2 cbr 500 ------- 0 0.0 3.0 25 54
r 0.62584 1 2 tcp 1040 ------- 0 1.0 2.0 10 34
+ 0.62584 2 1 ack 40 ------- 0 2.0 1.0 10 55
- 0.62584 2 1 ack 40 ------- 0 2.0 1.0 10 55
r 0.62784 2 1 ack 40 ------- 0 2.0 1.0 9 50
+ 0.62784 1 2 tcp 1040 ------- 0 1.0 2.0 19 56
+ 0.62784 1 2 tcp 1040 ------- 0 1.0 2.0 20 57
r 0.628 2 3 cbr 500 ------- 0 0.0 3.0 20 40
r 0.629 0 2 cbr 500 ------- 0 0.0 3.0 23 49
+ 0.629 2 3 cbr 500 ------- 0 0.0 3.0 23 49
- 0.629 2 3 cbr 500 ------- 0 0.0 3.0 23 49
+ 0.63 0 2 cbr 500 ------- 0 0.0 3.0 26 58
- 0.63 0 2 cbr 500 ------- 0 0.0 3.0 26 58
- 0.63248 1 2 tcp 1040 ------- 0 1.0 2.0 13 42
r 0.633 2 3 cbr 500 ------- 0 0.0 3.0 21 44
r 0.634 0 2 cbr 500 ------- 0 0.0 3.0 24 53
+ 0.634 2 3 cbr 500 ------- 0 0.0 3.0 24 53
- 0.634 2 3 cbr 500 ------- 0 0.0 3.0 24 53
r 0.63416 1 2 tcp 1040 ------- 0 1.0 2.0 11 37
+ 0.63416 2 1 ack 40 ------- 0 2.0 1.0 11 59
- 0.63416 2 1 ack 40 ------- 0 2.0 1.0 11 59
+ 0.635 0 2 cbr 500 ------- 0 0.0 3.0 27 60
- 0.635 0 2 cbr 500 ------- 0 0.0 3.0 27 60
r 0.63616 2 1 ack 40 ------- 0 2.0 1.0 10 55
+ 0.63616 1 2 tcp 1040 ------- 0 1.0 2.0 21 61
+ 0.63616 1 2 tcp 1040 ------- 0 1.0 2.0 22 62
r 0.638 2 3 cbr 500 ------- 0 0.0 3.0 22 46
r 0.639 0 2 cbr 500 ------- 0 0.0 3.0 25 54
+ 0.639 2 3 cbr 500 ------- 0 0.0 3.0 25 54
- 0.639 2 3 cbr 500 ------- 0 0.0 3.0 25 54
+ 0.64 0 2 cbr 500 ------- 0 0.0 3.0 28 63
- 0.64 0 2 cbr 500 ------- 0 0.0 3.0 28 63
- 0.6408 1 2 tcp 1040 ------- 0 1.0 2.0 14 43
r 0.64248 1 2 tcp 1040 ------- 0 1.0 2.0 12 38
+ 0.64248 2 1 ack 40 ------- 0 2.0 1.0 12 64
- 0.64248 2 1 ack 40 ------- 0 2.0 1.0 12 64
r 0.643 2 3 cbr 500 ------- 0 0.0 3.0 23 49
r 0.644 0 2 cbr 500 ------- 0 0.0 3.0 26 58
+ 0.644 2 3 cbr 500 ------- 0 0.0 3.0 26 58
- 0.644 2 3 cbr 500 ------- 0 0.0 3.0 26 58
r 0.64448 2 1 ack 40 ------- 0 2.0 1.0 11 59
+ 0.64448 1 2 tcp 1040 ------- 0 1.0 2.0 23 65
+ 0.64448 1 2 tcp 1040 ------- 0 1.0 2.0 24 66
+ 0.645 0 2 cbr 500 ------- 0 0.0 3.0 29 67
- 0.645 0 2 cbr 500 ------- 0 0.0 3.0 29 67
r 0.648 2 3 cbr 500 ------- 0 0.0 3.0 24 53
r 0.649 0 2 cbr 500 ------- 0 0.0 3.0 27 60
+ 0.649 2 3 cbr 500 ------- 0 0.0 3.0 27 60
- 0.649 2 3 cbr 500 ------- 0 0.0 3.0 27 60
- 0.64912 1 2 tcp 1040 ------- 0 1.0 2.0 15 47
+ 0.65 0 2 cbr 500 ------- 0 0.0 3.0 30 68
- 0.65 0 2 cbr 500 ------- 0 0.0 3.0 30 68
r 0.6508 1 2 tcp 1040 ------- 0 1.0 2.0 13 42
+ 0.6508 2 1 ack 40 ------- 0 2.0 1.0 13 69
- 0.6508 2 1 ack 40 ------- 0 2.0 1.0 13 69
r 0.6528 2 1 ack 40 ------- 0 2.0 1.0 12 64
+ 0.6528 1 2 tcp 1040 ------- 0 1.0 2.0 25 70
+ 0.6528 1 2 tcp 1040 ------- 0 1.0 2.0 26 71
r 0.653 2 3 cbr 500 ------- 0 0.0 3.0 25 54
r 0.654 0 2 cbr 500 ------- 0 0.0 3.0 28 63
+ 0.654 2 3 cbr 500 ------- 0 0.0 3.0 28 63
- 0.654 2 3 cbr 500 ------- 0 0.0 3.0 28 63
+ 0.655 0 2 cbr 500 ------- 0 0.0 3.0 31 72
- 0.655 0 2 cbr 500 ------- 0 0.0 3.0 31 72
- 0.65744 1 2 tcp 1040 ------- 0 1.0 2.0 16 48
r 0.658 2 3 cbr 500 ------- 0 0.0 3.0 26 58
r 0.659 0 2 cbr 500 ------- 0 0.0 3.0 29 67
+ 0.659 2 3 cbr 500 ------- 0 0.0 3.0 29 67
- 0.659 2 3 cbr 500 ------- 0 0.0 3.0 29 67
r 0.65912 1 2 tcp 1040 ------- 0 1.0 2.0 14 43
+ 0.65912 2 1 ack 40 ------- 0 2.0 1.0 14 73
- 0.65912 2 1 ack 40 ------- 0 2.0 1.0 14 73
+ 0.66 0 2 cbr 500 ------- 0 0.0 3.0 32 74
- 0.66 0 2 cbr 500 ------- 0 0.0 3.0 32 74
r 0.66112 2 1 ack 40 ------- 0 2.0 1.0 13 69
+ 0.66112 1 2 tcp 1040 ------- 0 1.0 2.0 27 75
+ 0.66112 1 2 tcp 1040 ------- 0 1.0 2.0 28 76
r 0.663 2 3 cbr 500 ------- 0 0.0 3.0 27 60
r 0.664 0 2 cbr 500 ------- 0 0.0 3.0 30 68
+ 0.664 2 3 cbr 500 ------- 0 0.0 3.0 30 68
- 0.664 2 3 cbr 500 ------- 0 0.0 3.0 30 68
+ 0.665 0 2 cbr 500 ------- 0 0.0 3.0 33 77
- 0.665 0 2 cbr 500 ------- 0 0.0 3.0 33 77
- 0.66576 1 2 tcp 1040 ------- 0 1.0 2.0 17 51
r 0.66744 1 2 tcp 1040 ------- 0 1.0 2.0 15 47
+ 0.66744 2 1 ack 40 ------- 0 2.0 1.0 15 78
- 0.66744 2 1 ack 40 ------- 0 2.0 1.0 15 78
r 0.668 2 3 cbr 500 ------- 0 0.0 3.0 28 63
r 0.669 0 2 cbr 500 ------- 0 0.0 3.0 31 72
+ 0.669 2 3 cbr 500 ------- 0 0.0 3.0 31 72
- 0.669 2 3 cbr 500 ------- 0 0.0 3.0 31 72
r 0.66944 2 1 ack 40 ------- 0 2.0 1.0 14 73
+ 0.66944 1 2 tcp 1040 ------- 0 1.0 2.0 29 79
+ 0.66944 1 2 tcp 1040 ------- 0 1.0 2.0 30 80
+ 0.67 0 2 cbr 500 ------- 0 0.0 3.0 34 81
- 0.67 0 2 cbr 500 ------- 0 0.0 3.0 34 81
r 0.673 2 3 cbr 500 ------- 0 0.0 3.0 29 67
r 0.674 0 2 cbr 500 ------- 0 0.0 3.0 32 74
+ 0.674 2 3 cbr 500 ------- 0 0.0 3.0 32 74
- 0.674 2 3 cbr 500 ------- 0 0.0 3.0 32 74
- 0.67408 1 2 tcp 1040 ------- 0 1.0 2.0 18 52
+ 0.675 0 2 cbr 500 ------- 0 0.0 3.0 35 82
- 0.675 0 2 cbr 500 ------- 0 0.0 3.0 35 82
r 0.67576 1 2 tcp 1040 ------- 0 1.0 2.0 16 48
+ 0.67576 2 1 ack 40 ------- 0 2.0 1.0 16 83
- 0.67576 2 1 ack 40 ------- 0 2.0 1.0 16 83
r 0.67776 2 1 ack 40 ------- 0 2.0 1.0 15 78
+ 0.67776 1 2 tcp 1040 ------- 0 1.0 2.0 31 84
+ 0.67776 1 2 tcp 1040 ------- 0 1.0 2.0 32 85
r 0.678 2 3 cbr 500 ------- 0 0.0 3.0 30 68
r 0.679 0 2 cbr 500 ------- 0 0.0 3.0 33 77
+ 0.679 2 3 cbr 500 ------- 0 0.0 3.0 33 77
- 0.679 2 3 cbr 500 ------- 0 0.0 3.0 33 77
+ 0.68 0 2 cbr 500 ------- 0 0.0 3.0 36 86
- 0.68 0 2 cbr 500 ------- 0 0.0 3.0 36 86
- 0.6824 1 2 tcp 1040 ------- 0 1.0 2.0 19 56
r 0.683 2 3 cbr 500 ------- 0 0.0 3.0 31 72
r 0.684 0 2 cbr 500 ------- 0 0.0 3.0 34 81
+ 0.684 2 3 cbr 500 ------- 0 0.0 3.0 34 81
- 0.684 2 3 cbr 500 ------- 0 0.0 3.0 34 81
r 0.68408 1 2 tcp 1040 ------- 0 1.0 2.0 17 51
+ 0.68408 2 1 ack 40 ------- 0 2.0 1.0 17 87
- 0.68408 2 1 ack 40 ------- 0 2.0 1.0 17 87
+ 0.685 0 2 cbr 500 ------- 0 0.0 3.0 37 88
- 0.685 0 2 cbr 500 ------- 0 0.0 3.0 37 88
r 0.68608 2 1 ack 40 ------- 0 2.0 1.0 16 83
+ 0.68608 1 2 tcp 1040 ------- 0 1.0 2.0 33 89
+ 0.68608 1 2 tcp 1040 ------- 0 1.0 2.0 34 90
r 0.688 2 3 cbr 500 ------- 0 0.0 3.0 32 74
r 0.689 0 2 cbr 500 ------- 0 0.0 3.0 35 82
+ 0.689 2 3 cbr 500 ------- 0 0.0 3.0 35 82
- 0.689 2 3 cbr 500 ------- 0 0.0 3.0 35 82
+ 0.69 0 2 cbr 500 ------- 0 0.0 3.0 38 91
- 0.69 0 2 cbr 500 ------- 0 0.0 3.0 38 91
- 0.69072 1 2 tcp 1040 ------- 0 1.0 2.0 20 57
r 0.6924 1 2 tcp 1040 ------- 0 1.0 2.0 18 52
+ 0.6924 2 1 ack 40 ------- 0 2.0 1.0 18 92
- 0.6924 2 1 ack 40 ------- 0 2.0 1.0 18 92
r 0.693 2 3 cbr 500 ------- 0 0.0 3.0 33 77
r 0.694 0 2 cbr 500 ------- 0 0.0 3.0 36 86
+ 0.694 2 3 cbr 500 ------- 0 0.0 3.0 36 86
- 0.694 2 3 cbr 500 ------- 0 0.0 3.0 36 86
r 0.6944 2 1 ack 40 ------- 0 2.0 1.0 17 87
+ 0.6944 1 2 tcp 1040 ------- 0 1.0 2.0 35 93
+ 0.6944 1 2 tcp 1040 ------- 0 1.0 2.0 36 94
+ 0.695 0 2 cbr 500 ------- 0 0.0 3.0 39 95
- 0.695 0 2 cbr 500 ------- 0 0.0 3.0 39 95
r 0.698 2 3 cbr 500 ------- 0 0.0 3.0 34 81
r 0.699 0 2 cbr 500 ------- 0 0.0 3.0 37 88
+ 0.699 2 3 cbr 500 ------- 0 0.0 3.0 37 88
- 0.699 2 3 cbr 500 ------- 0 0.0 3.0 37 88
- 0.69904 1 2 tcp 1040 ------- 0 1.0 2.0 21 61
+ 0.7 0 2 cbr 500 ------- 0 0.0 3.0 40 96
- 0.7 0 2 cbr 500 ------- 0 0.0 3.0 40 96
r 0.70072 1 2 tcp 1040 ------- 0 1.0 2.0 19 56
+ 0.70072 2 1 ack 40 ------- 0 2.0 1.0 19 97
- 0.70072 2 1 ack 40 ------- 0 2.0 1.0 19 97
r 0.70272 2 1 ack 40 ------- 0 2.0 1.0 18 92
+ 0.70272 1 2 tcp 1040 ------- 0 1.0 2.0 37 98
+ 0.70272 1 2 tcp 1040 ------- 0 1.0 2.0 38 99
r 0.703 2 3 cbr 500 ------- 0 0.0 3.0 35 82
r 0.704 0 2 cbr 500 ------- 0 0.0 3.0 38 91
+ 0.704 2 3 cbr 500 ------- 0 0.0 3.0 38 91
- 0.704 2 3 cbr 500 ------- 0 0.0 3.0 38 91
+ 0.705 0 2 cbr 500 ------- 0 0.0 3.0 41 100
- 0.705 0 2 cbr 500 ------- 0 0.0 3.0 41 100
- 0.70736 1 2 tcp 1040 ------- 0 1.0 2.0 22 62
r 0.708 2 3 cbr 500 ------- 0 0.0 3.0 36 86
r 0.709 0 2 cbr 500 ------- 0 0.0 3.0 39 95
+ 0.709 2 3 cbr 500 ------- 0 0.0 3.0 39 95
- 0.709 2 3 cbr 500 ------- 0 0.0 3.0 39 95
r 0.70904 1 2 tcp 1040 ------- 0 1.0 2.0 20 57
+ 0.70904 2 1 ack 40 ------- 0 2.0 1.0 20 101
- 0.70904 2 1 ack 40 ------- 0 2.0 1.0 20 101
+ 0.71 0 2 cbr 500 ------- 0 0.0 3.0 42 102
- 0.71 0 2 cbr 500 ------- 0 0.0 3.0 42 102
r 0.71104 2 1 ack 40 ------- 0 2.0 1.0 19 97
+ 0.71104 1 2 tcp 1040 ------- 0 1.0 2.0 39 103
r 0.713 2 3 cbr 500 ------- 0 0.0 3.0 37 88
r 0.714 0 2 cbr 500 ------- 0 0.0 3.0 40 96
+ 0.714 2 3 cbr 500 ------- 0 0.0 3.0 40 96
- 0.714 2 3 cbr 500 ------- 0 0.0 3.0 40 96
+ 0.715 0 2 cbr 500 ------- 0 0.0 3.0 43 104
- 0.715 0 2 cbr 500 ------- 0 0.0 3.0 43 104
- 0.71568 1 2 tcp 1040 ------- 0 1.0 2.0 23 65
r 0.71736 1 2 tcp 1040 ------- 0 1.0 2.0 21 61
+ 0.71736 2 1 ack 40 ------- 0 2.0 1.0 21 105
- 0.71736 2 1 ack 40 ------- 0 2.0 1.0 21 105
r 0.718 2 3 cbr 500 ------- 0 0.0 3.0 38 91
r 0.719 0 2 cbr 500 ------- 0 0.0 3.0 41 100
+ 0.719 2 3 cbr 500 ------- 0 0.0 3.0 41 100
- 0.719 2 3 cbr 500 ------- 0 0.0 3.0 41 100
r 0.71936 2 1 ack 40 ------- 0 2.0 1.0 20 101
+ 0.71936 1 2 tcp 1040 ------- 0 1.0 2.0 40 106
+ 0.72 0 2 cbr 500 ------- 0 0.0 3.0 44 107
- 0.72 0 2 cbr 500 ------- 0 0.0 3.0 44 107
r 0.723 2 3 cbr 500 ------- 0 0.0 3.0 39 95
- 0.724 1 2 tcp 1040 ------- 0 1.0 2.0 24 66
r 0.724 0 2 cbr 500 ------- 0 0.0 3.0 42 102
+ 0.724 2 3 cbr 500 ------- 0 0.0 3.0 42 102
- 0.724 2 3 cbr 500 ------- 0 0.0 3.0 42 102
+ 0.725 0 2 cbr 500 ------- 0 0.0 3.0 45 108
- 0.725 0 2 cbr 500 ------- 0 0.0 3.0 45 108
r 0.72568 1 2 tcp 1040 ------- 0 1.0 2.0 22 62
+ 0.72568 2 1 ack 40 ------- 0 2.0 1.0 22 109
- 0.72568 2 1 ack 40 ------- 0 2.0 1.0 22 109
r 0.72768 2 1 ack 40 ------- 0 2.0 1.0 21 105
+ 0.72768 1 2 tcp 1040 ------- 0 1.0 2.0 41 110
r 0.728 2 3 cbr 500 ------- 0 0.0 3.0 40 96
r 0.729 0 2 cbr 500 ------- 0 0.0 3.0 43 104
+ 0.729 2 3 cbr 500 ------- 0 0.0 3.0 43 104
- 0.729 2 3 cbr 500 ------- 0 0.0 3.0 43 104
+ 0.73 0 2 cbr 500 ------- 0 0.0 3.0 46 111
- 0.73 0 2 cbr 500 ------- 0 0.0 3.0 46 111
- 0.73232 1 2 tcp 1040 ------- 0 1.0 2.0 25 70
r 0.733 2 3 cbr 500 ------- 0 0.0 3.0 41 100
r 0.734 1 2 tcp 1040 ------- 0 1.0 2.0 23 65
+ 0.734 2 1 ack 40 ------- 0 2.0 1.0 23 112
- 0.734 2 1 ack 40 ------- 0 2.0 1.0 23 112
r 0.734 0 2 cbr 500 ------- 0 0.0 3.0 44 107
+ 0.734 2 3 cbr 500 ------- 0 0.0 3.0 44 107
- 0.734 2 3 cbr 500 ------- 0 0.0 3.0 44 107
+ 0.735 0 2 cbr 500 ------- 0 0.0 3.0 47 113
- 0.735 0 2 cbr 500 ------- 0 0.0 3.0 47 113
r 0.736 2 1 ack 40 ------- 0 2.0 1.0 22 109
+ 0.736 1 2 tcp 1040 ------- 0 1.0 2.0 42 114
r 0.738 2 3 cbr 500 ------- 0 0.0 3.0 42 102
r 0.739 0 2 cbr 500 ------- 0 0.0 3.0 45 108
+ 0.739 2 3 cbr 500 ------- 0 0.0 3.0 45 108
- 0.739 2 3 cbr 500 ------- 0 0.0 3.0 45 108
+ 0.74 0 2 cbr 500 ------- 0 0.0 3.0 48 115
- 0.74 0 2 cbr 500 ------- 0 0.0 3.0 48 115
- 0.74064 1 2 tcp 1040 ------- 0 1.0 2.0 26 71
r 0.74232 1 2 tcp 1040 ------- 0 1.0 2.0 24 66
+ 0.74232 2 1 ack 40 ------- 0 2.0 1.0 24 116
- 0.74232 2 1 ack 40 ------- 0 2.0 1.0 24 116
r 0.743 2 3 cbr 500 ------- 0 0.0 3.0 43 104
r 0.744 0 2 cbr 500 ------- 0 0.0 3.0 46 111
+ 0.744 2 3 cbr 500 ------- 0 0.0 3.0 46 111
- 0.744 2 3 cbr 500 ------- 0 0.0 3.0 46 111
r 0.74432 2 1 ack 40 ------- 0 2.0 1.0 23 112
+ 0.74432 1 2 tcp 1040 ------- 0 1.0 2.0 43 117
+ 0.745 0 2 cbr 500 ------- 0 0.0 3.0 49 118
- 0.745 0 2 cbr 500 ------- 0 0.0 3.0 49 118
r 0.748 2 3 cbr 500 ------- 0 0.0 3.0 44 107
- 0.74896 1 2 tcp 1040 ------- 0 1.0 2.0 27 75
r 0.749 0 2 cbr 500 ------- 0 0.0 3.0 47 113
+ 0.749 2 3 cbr 500 ------- 0 0.0 3.0 47 113
- 0.749 2 3 cbr 500 ------- 0 0.0 3.0 47 113
+ 0.75 0 2 cbr 500 ------- 0 0.0 3.0 50 119
- 0.75 0 2 cbr 500 ------- 0 0.0 3.0 50 119
r 0.75064 1 2 tcp 1040 ------- 0 1.0 2.0 25 70
+ 0.75064 2 1 ack 40 ------- 0 2.0 1.0 25 120
- 0.75064 2 1 ack 40 ------- 0 2.0 1.0 25 120
r 0.75264 2 1 ack 40 ------- 0 2.0 1.0 24 116
+ 0.75264 1 2 tcp 1040 ------- 0 1.0 2.0 44 121
r 0.753 2 3 cbr 500 ------- 0 0.0 3.0 45 108
r 0.754 0 2 cbr 500 ------- 0 0.0 3.0 48 115
+ 0.754 2 3 cbr 500 ------- 0 0.0 3.0 48 115
- 0.754 2 3 cbr 500 ------- 0 0.0 3.0 48 115
+ 0.755 0 2 cbr 500 ------- 0 0.0 3.0 51 122
- 0.755 0 2 cbr 500 ------- 0 0.0 3.0 51 122
- 0.75728 1 2 tcp 1040 ------- 0 1.0 2.0 28 76
r 0.758 2 3 cbr 500 ------- 0 0.0 3.0 46 111
r 0.75896 1 2 tcp 1040 ------- 0 1.0 2.0 26 71
+ 0.75896 2 1 ack 40 ------- 0 2.0 1.0 26 123
- 0.75896 2 1 ack 40 ------- 0 2.0 1.0 26 123
r 0.759 0 2 cbr 500 ------- 0 0.0 3.0 49 118
+ 0.759 2 3 cbr 500 ------- 0 0.0 3.0 49 118
- 0.759 2 3 cbr 500 ------- 0 0.0 3.0 49 118
+ 0.76 0 2 cbr 500 ------- 0 0.0 3.0 52 124
- 0.76 0 2 cbr 500 ------- 0 0.0 3.0 52 124
r 0.76096 2 1 ack 40 ------- 0 2.0 1.0 25 120
+ 0.76096 1 2 tcp 1040 ------- 0 1.0 2.0 45 125
r 0.763 2 3 cbr 500 ------- 0 0.0 3.0 47 113
r 0.764 0 2 cbr 500 ------- 0 0.0 3.0 50 119
+ 0.764 2 3 cbr 500 ------- 0 0.0 3.0 50 119
- 0.764 2 3 cbr 500 ------- 0 0.0 3.0 50 119
+ 0.765 0 2 cbr 500 ------- 0 0.0 3.0 53 126
- 0.765 0 2 cbr 500 ------- 0 0.0 3.0 53 126
- 0.7656 1 2 tcp 1040 ------- 0 1.0 2.0 29 79
r 0.76728 1 2 tcp 1040 ------- 0 1.0 2.0 27 75
+ 0.76728 2 1 ack 40 ------- 0 2.0 1.0 27 127
- 0.76728 2 1 ack 40 ------- 0 2.0 1.0 27 127
r 0.768 2 3 cbr 500 ------- 0 0.0 3.0 48 115
r 0.769 0 2 cbr 500 ------- 0 0.0 3.0 51 122
+ 0.769 2 3 cbr 500 ------- 0 0.0 3.0 51 122
- 0.769 2 3 cbr 500 ------- 0 0.0 3.0 51 122
r 0.76928 2 1 ack 40 ------- 0 2.0 1.0 26 123
+ 0.76928 1 2 tcp 1040 ------- 0 1.0 2.0 46 128
+ 0.77 0 2 cbr 500 ------- 0 0.0 3.0 54 129
- 0.77 0 2 cbr 500 ------- 0 0.0 3.0 54 129
r 0.773 2 3 cbr 500 ------- 0 0.0 3.0 49 118
- 0.77392 1 2 tcp 1040 ------- 0 1.0 2.0 30 80
r 0.774 0 2 cbr 500 ------- 0 0.0 3.0 52 124
+ 0.774 2 3 cbr 500 ------- 0 0.0 3.0 52 124
- 0.774 2 3 cbr 500 ------- 0 0.0 3.0 52 124
+ 0.775 0 2 cbr 500 ------- 0 0.0 3.0 55 130
- 0.775 0 2 cbr 500 ------- 0 0.0 3.0 55 130
r 0.7756 1 2 tcp 1040 ------- 0 1.0 2.0 28 76
+ 0.7756 2 1 ack 40 ------- 0 2.0 1.0 28 131
- 0.7756 2 1 ack 40 ------- 0 2.0 1.0 28 131
r 0.7776 2 1 ack 40 ------- 0 2.0 1.0 27 127
+ 0.7776 1 2 tcp 1040 ------- 0 1.0 2.0 47 132
r 0.778 2 3 cbr 500 ------- 0 0.0 3.0 50 119
r 0.779 0 2 cbr 500 ------- 0 0.0 3.0 53 126
+ 0.779 2 3 cbr 500 ------- 0 0.0 3.0 53 126
- 0.779 2 3 cbr 500 ------- 0 0.0 3.0 53 126
+ 0.78 0 2 cbr 500 ------- 0 0.0 3.0 56 133
- 0.78 0 2 cbr 500 ------- 0 0.0 3.0 56 133
- 0.78224 1 2 tcp 1040 ------- 0 1.0 2.0 31 84
r 0.783 2 3 cbr 500 ------- 0 0.0 3.0 51 122
r 0.78392 1 2 tcp 1040 ------- 0 1.0 2.0 29 79
+ 0.78392 2 1 ack 40 ------- 0 2.0 1.0 29 134
- 0.78392 2 1 ack 40 ------- 0 2.0 1.0 29 134
r 0.784 0 2 cbr 500 ------- 0 0.0 3.0 54 129
+ 0.784 2 3 cbr 500 ------- 0 0.0 3.0 54 129
- 0.784 2 3 cbr 500 ------- 0 0.0 3.0 54 129
+ 0.785 0 2 cbr 500 ------- 0 0.0 3.0 57 135
- 0.785 0 2 cbr 500 ------- 0 0.0 3.0 57 135
r 0.78592 2 1 ack 40 ------- 0 2.0 1.0 28 131
+ 0.78592 1 2 tcp 1040 ------- 0 1.0 2.0 48 136
r 0.788 2 3 cbr 500 ------- 0 0.0 3.0 52 124
r 0.789 0 2 cbr 500 ------- 0 0.0 3.0 55 130
+ 0.789 2 3 cbr 500 ------- 0 0.0 3.0 55 130
- 0.789 2 3 cbr 500 ------- 0 0.0 3.0 55 130
+ 0.79 0 2 cbr 500 ------- 0 0.0 3.0 58 137
- 0.79 0 2 cbr 500 ------- 0 0.0 3.0 58 137
- 0.79056 1 2 tcp 1040 ------- 0 1.0 2.0 32 85
r 0.79224 1 2 tcp 1040 ------- 0 1.0 2.0 30 80
+ 0.79224 2 1 ack 40 ------- 0 2.0 1.0 30 138
- 0.79224 2 1 ack 40 ------- 0 2.0 1.0 30 138
r 0.793 2 3 cbr 500 ------- 0 0.0 3.0 53 126
r 0.794 0 2 cbr 500 ------- 0 0.0 3.0 56 133
+ 0.794 2 3 cbr 500 ------- 0 0.0 3.0 56 133
- 0.794 2 3 cbr 500 ------- 0 0.0 3.0 56 133
r 0.79424 2 1 ack 40 ------- 0 2.0 1.0 29 134
+ 0.79424 1 2 tcp 1040 ------- 0 1.0 2.0 49 139
+ 0.795 0 2 cbr 500 ------- 0 0.0 3.0 59 140
- 0.795 0 2 cbr 500 ------- 0 0.0 3.0 59 140
r 0.798 2 3 cbr 500 ------- 0 0.0 3.0 54 129
- 0.79888 1 2 tcp 1040 ------- 0 1.0 2.0 33 89
r 0.799 0 2 cbr 500 ------- 0 0.0 3.0 57 135
+ 0.799 2 3 cbr 500 ------- 0 0.0 3.0 57 135
- 0.799 2 3 cbr 500 ------- 0 0.0 3.0 57 135
+ 0.8 0 2 cbr 500 ------- 0 0.0 3.0 60 141
- 0.8 0 2 cbr 500 ------- 0 0.0 3.0 60 141
r 0.80056 1 2 tcp 1040 ------- 0 1.0 2.0 31 84
+ 0.80056 2 1 ack 40 ------- 0 2.0 1.0 31 142
- 0.80056 2 1 ack 40 ------- 0 2.0 1.0 31 142
r 0.80256 2 1 ack 40 ------- 0 2.0 1.0 30 138
+ 0.80256 1 2 tcp 1040 ------- 0 1.0 2.0 50 143
r 0.803 2 3 cbr 500 ------- 0 0.0 3.0 55 130
r 0.804 0 2 cbr 500 ------- 0 0.0 3.0 58 137
+ 0.804 2 3 cbr 500 ------- 0 0.0 3.0 58 137
- 0.804 2 3 cbr 500 ------- 0 0.0 3.0 58 137
+ 0.805 0 2 cbr 500 ------- 0 0.0 3.0 61 144
- 0.805 0 2 cbr 500 ------- 0 0.0 3.0 61 144
- 0.8072 1 2 tcp 1040 ------- 0 1.0 2.0 34 90
r 0.808 2 3 cbr 500 ------- 0 0.0 3.0 56 133
r 0.80888 1 2 tcp 1040 ------- 0 1.0 2.0 32 85
+ 0.80888 2 1 ack 40 ------- 0 2.0 1.0 32 145
- 0.80888 2 1 ack 40 ------- 0 2.0 1.0 32 145
r 0.809 0 2 cbr 500 ------- 0 0.0 3.0 59 140
+ 0.809 2 3 cbr 500 ------- 0 0.0 3.0 59 140
- 0.809 2 3 cbr 500 ------- 0 0.0 3.0 59 140
+ 0.81 0 2 cbr 500 ------- 0 0.0 3.0 62 146
- 0.81 0 2 cbr 500 ------- 0 0.0 3.0 62 146
r 0.81088 2 1 ack 40 ------- 0 2.0 1.0 31 142
+ 0.81088 1 2 tcp 1040 ------- 0 1.0 2.0 51 147
r 0.813 2 3 cbr 500 ------- 0 0.0 3.0 57 135
r 0.814 0 2 cbr 500 ------- 0 0.0 3.0 60 141
+ 0.814 2 3 cbr 500 ------- 0 0.0 3.0 60 141
- 0.814 2 3 cbr 500 ------- 0 0.0 3.0 60 141
+ 0.815 0 2 cbr 500 ------- 0 0.0 3.0 63 148
- 0.815 0 2 cbr 500 ------- 0 0.0 3.0 63 148
- 0.81552 1 2 tcp 1040 ------- 0 1.0 2.0 35 93
r 0.8172 1 2 tcp 1040 ------- 0 1.0 2.0 33 89
+ 0.8172 2 1 ack 40 ------- 0 2.0 1.0 33 149
- 0.8172 2 1 ack 40 ------- 0 2.0 1.0 33 149
r 0.818 2 3 cbr 500 ------- 0 0.0 3.0 58 137
r 0.819 0 2 cbr 500 ------- 0 0.0 3.0 61 144
+ 0.819 2 3 cbr 500 ------- 0 0.0 3.0 61 144
- 0.819 2 3 cbr 500 ------- 0 0.0 3.0 61 144
r 0.8192 2 1 ack 40 ------- 0 2.0 1.0 32 145
+ 0.8192 1 2 tcp 1040 ------- 0 1.0 2.0 52 150
+ 0.82 0 2 cbr 500 ------- 0 0.0 3.0 64 151
- 0.82 0 2 cbr 500 ------- 0 0.0 3.0 64 151
r 0.823 2 3 cbr 500 ------- 0 0.0 3.0 59 140
- 0.82384 1 2 tcp 1040 ------- 0 1.0 2.0 36 94
r 0.824 0 2 cbr 500 ------- 0 0.0 3.0 62 146
+ 0.824 2 3 cbr 500 ------- 0 0.0 3.0 62 146
- 0.824 2 3 cbr 500 ------- 0 0.0 3.0 62 146
+ 0.825 0 2 cbr 500 ------- 0 0.0 3.0 65 152
- 0.825 0 2 cbr 500 ------- 0 0.0 3.0 65 152
r 0.82552 1 2 tcp 1040 ------- 0 1.0 2.0 34 90
+ 0.82552 2 1 ack 40 ------- 0 2.0 1.0 34 153
- 0.82552 2 1 ack 40 ------- 0 2.0 1.0 34 153
r 0.82752 2 1 ack 40 ------- 0 2.0 1.0 33 149
+ 0.82752 1 2 tcp 1040 ------- 0 1.0 2.0 53 154
r 0.828 2 3 cbr 500 ------- 0 0.0 3.0 60 141
r 0.829 0 2 cbr 500 ------- 0 0.0 3.0 63 148
+ 0.829 2 3 cbr 500 ------- 0 0.0 3.0 63 148
- 0.829 2 3 cbr 500 ------- 0 0.0 3.0 63 148
+ 0.83 0 2 cbr 500 ------- 0 0.0 3.0 66 155
- 0.83 0 2 cbr 500 ------- 0 0.0 3.0 66 155
- 0.83216 1 2 tcp 1040 ------- 0 1.0 2.0 37 98
r 0.833 2 3 cbr 500 ------- 0 0.0 3.0 61 144
r 0.83384 1 2 tcp 1040 ------- 0 1.0 2.0 35 93
+ 0.83384 2 1 ack 40 ------- 0 2.0 1.0 35 156
- 0.83384 2 1 ack 40 ------- 0 2.0 1.0 35 156
r 0.834 0 2 cbr 500 ------- 0 0.0 3.0 64 151
+ 0.834 2 3 cbr 500 ------- 0 0.0 3.0 64 151
- 0.834 2 3 cbr 500 ------- 0 0.0 3.0 64 151
+ 0.835 0 2 cbr 500 ------- 0 0.0 3.0 67 157
- 0.835 0 2 cbr 500 ------- 0 0.0 3.0 67 157
r 0.83584 2 1 ack 40 ------- 0 2.0 1.0 34 153
+ 0.83584 1 2 tcp 1040 ------- 0 1.0 2.0 54 158
r 0.838 2 3 cbr 500 ------- 0 0.0 3.0 62 146
r 0.839 0 2 cbr 500 ------- 0 0.0 3.0 65 152
+ 0.839 2 3 cbr 500 ------- 0 0.0 3.0 65 152
- 0.839 2 3 cbr 500 ------- 0 0.0 3.0 65 152
+ 0.84 0 2 cbr 500 ------- 0 0.0 3.0 68 159
- 0.84 0 2 cbr 500 ------- 0 0.0 3.0 68 159
- 0.84048 1 2 tcp 1040 ------- 0 1.0 2.0 38 99
r 0.84216 1 2 tcp 1040 ------- 0 1.0 2.0 36 94
+ 0.84216 2 1 ack 40 ------- 0 2.0 1.0 36 160
- 0.84216 2 1 ack 40 ------- 0 2.0 1.0 36 160
r 0.843 2 3 cbr 500 ------- 0 0.0 3.0 63 148
r 0.844 0 2 cbr 500 ------- 0 0.0 3.0 66 155
+ 0.844 2 3 cbr 500 ------- 0 0.0 3.0 66 155
- 0.844 2 3 cbr 500 ------- 0 0.0 3.0 66 155
r 0.84416 2 1 ack 40 ------- 0 2.0 1.0 35 156
+ 0.84416 1 2 tcp 1040 ------- 0 1.0 2.0 55 161
+ 0.845 0 2 cbr 500 ------- 0 0.0 3.0 69 162
- 0.845 0 2 cbr 500 ------- 0 0.0 3.0 69 162
r 0.848 2 3 cbr 500 ------- 0 0.0 3.0 64 151
- 0.8488 1 2 tcp 1040 ------- 0 1.0 2.0 39 103
r 0.849 0 2 cbr 500 ------- 0 0.0 3.0 67 157
+ 0.849 2 3 cbr 500 ------- 0 0.0 3.0 67 157
- 0.849 2 3 cbr 500 ------- 0 0.0 3.0 67 157
+ 0.85 0 2 cbr 500 ------- 0 0.0 3.0 70 163
- 0.85 0 2 cbr 500 ------- 0 0.0 3.0 70 163
r 0.85048 1 2 tcp 1040 ------- 0 1.0 2.0 37 98
+ 0.85048 2 1 ack 40 ------- 0 2.0 1.0 37 164
- 0.85048 2 1 ack 40 ------- 0 2.0 1.0 37 164
r 0.85248 2 1 ack 40 ------- 0 2.0 1.0 36 160
+ 0.85248 1 2 tcp 1040 ------- 0 1.0 2.0 56 165
r 0.853 2 3 cbr 500 ------- 0 0.0 3.0 65 152
r 0.854 0 2 cbr 500 ------- 0 0.0 3.0 68 159
+ 0.854 2 3 cbr 500 ------- 0 0.0 3.0 68 159
- 0.854 2 3 cbr 500 ------- 0 0.0 3.0 68 159
+ 0.855 0 2 cbr 500 ------- 0 0.0 3.0 71 166
- 0.855 0 2 cbr 500 ------- 0 0.0 3.0 71 166
- 0.85712 1 2 tcp 1040 ------- 0 1.0 2.0 40 106
r 0.858 2 3 cbr 500 ------- 0 0.0 3.0 66 155
r 0.8588 1 2 tcp 1040 ------- 0 1.0 2.0 38 99
+ 0.8588 2 1 ack 40 ------- 0 2.0 1.0 38 167
- 0.8588 2 1 ack 40 ------- 0 2.0 1.0 38 167
r 0.859 0 2 cbr 500 ------- 0 0.0 3.0 69 162